# vtk DataFile Version 2.0
Sway data processing
ASCII
DATASET POLYDATA
POINTS    1537  float
0 0 0
-0.6621941219165215 -0.6621941219165215 -0.6621941219165215
-0.7310425164818332 -0.4966455914373911 -0.7310425164818332
-0.8451491639262716 -0.5482818873613748 -0.5482818873613748
-0.7310425164818332 -0.7310425164818332 -0.4966455914373911
-0.731472674824316 -0.731472674824316 -0.4969378264847345
-0.845646464637665 -0.548604506118237 -0.548604506118237
-0.9185511843407828 -0.5827112532491 -0.365736337412158
-0.7769483376654666 -0.7769483376654666 -0.3312918843231563
-0.6564874652136248 -0.6564874652136248 -0.2799271957240474
-0.7761356958285904 -0.49236559891021864 -0.3090312565770672
-0.8108532267818644 -0.5088740355954385 -0.1545156282885336
-0.6784987141272515 -0.6784987141272515 -0.1399635978620237
-0.6505971862619466 -0.6505971862619466 -0.13420795213335227
-0.7775089573961403 -0.48794788969645997 -0.14816156745016767
-0.7882932305595882 -0.49311150322587327 0.0
-0.6574820043011643 -0.6574820043011643 0.0
-0.6544444335819566 -0.6544444335819566 0.0
-0.7846513112072211 -0.49083332518646744 0.0
-0.7739168614490907 -0.4856935675818698 0.1474770601388582
-0.6475914234424931 -0.6475914234424931 0.13358791060671243
-0.556579788076628 -0.556579788076628 0.11481364373209016
-0.6651516174264387 -0.41743484105747103 0.12675083070419765
-0.6366724536223154 -0.40389279300281117 0.2535016614083953
-0.5385237240037481 -0.5385237240037481 0.22962728746418032
-0.6798564717642538 -0.6798564717642538 0.2898917735982735
-0.8037638244998565 -0.5098923538231904 0.3200318526919505
-0.7399696915961771 -0.4800477790379257 0.4800477790379257
-0.640063705383901 -0.640063705383901 0.43483766039741023
-0.533981717725913 -0.533981717725913 0.36276914138048005
-0.6173296246295473 -0.4004862882944347 0.4004862882944347
-0.533981717725913 -0.36276914138048005 0.533981717725913
-0.4836921885073068 -0.4836921885073068 0.4836921885073068
-0.5254637110321726 -0.35698229536687276 -0.5254637110321726
-0.5581317947222408 -0.2379881969112485 -0.5581317947222408
-0.6598541964846887 -0.2627318555160863 -0.4185988460416807
-0.6074820629990987 -0.3940977832741294 -0.3940977832741294
-0.5548787603441959 -0.35997192799068534 -0.35997192799068534
-0.6027158674376905 -0.23998128532712357 -0.3823513860251431
-0.6611361844843888 -0.25490092401676206 -0.25490092401676206
-0.6027158674376905 -0.3823513860251431 -0.23998128532712357
-0.775840394119987 -0.492178265170259 -0.3089136773205408
-0.8510414038342546 -0.3281188434468393 -0.3281188434468393
-0.8931278538794611 -0.33912028051770476 -0.16405942172341964
-0.8105447158544812 -0.5086804207765571 -0.1544568386602704
-0.6143719922603612 -0.38556664107898453 -0.11707430056577413
-0.6769678812262554 -0.2570444273859897 -0.1243528108958714
-0.6872723986963818 -0.2597645499870655 0.0
-0.6228935087335556 -0.38964682498059827 0.0
-0.6699224133261571 -0.4190654384352153 0.0
-0.7391619554412189 -0.2793769589568102 0.0
-0.7280794395457104 -0.27645146515745966 0.13374153689388996
-0.6607575162757321 -0.4146771977361895 0.1259134938377472
-0.5718110808461436 -0.358856328984735 0.10896392281738587
-0.6300706098888422 -0.23923755265649002 0.11573821088916206
-0.600380084469826 -0.23147642177832412 0.23147642177832412
-0.5473283899681783 -0.3472146326674862 0.21792784563477174
-0.7215407566639883 -0.4577316166520661 0.28729337911122826
-0.79147858648358 -0.30515441110137737 0.30515441110137737
-0.7215407566639883 -0.28729337911122826 0.4577316166520661
-0.6642726070869828 -0.43094006866684237 0.43094006866684237
-0.6970920577585236 -0.4522313520572922 0.4522313520572922
-0.7571896318670255 -0.30148756803819476 0.4803465793243866
-0.6404621057658487 -0.2730939594958034 0.6404621057658487
-0.6029751360763895 -0.40964093924370504 0.6029751360763895
-0.6767373603658221 -0.2885617800291963 -0.6767373603658221
-0.6994275643338683 -0.14428089001459815 -0.6994275643338683
-0.835864660657164 -0.15928178977373503 -0.5245706732504012
-0.8000762389420715 -0.31856357954747005 -0.5075530202743667
-0.5926844316699291 -0.23598710335965986 -0.37598763558012555
-0.6191959556374709 -0.11799355167982993 -0.38859405668293673
-0.682283338811651 -0.12532921186004184 -0.2590627044552911
-0.6501324171593422 -0.2506584237200837 -0.2506584237200837
-0.5486593146231611 -0.21153548928337237 -0.21153548928337237
-0.5757920989186031 -0.10576774464168619 -0.21862802425990382
-0.6054935701389188 -0.10931401212995191 -0.10931401212995191
-0.5757920989186031 -0.21862802425990382 -0.10576774464168619
-0.4976889807089194 -0.18897230224706194 -0.0914209158504682
-0.5233616062363564 -0.09448615112353097 -0.09448615112353097
-0.5316437284529659 -0.09548603241943565 0.0
-0.5052645909241558 -0.1909720648388713 0.0
-0.684796440848409 -0.25882872588386335 0.0
-0.7205486780264374 -0.12941436294193168 0.0
-0.7093237318923097 -0.12805920137904828 0.12805920137904828
-0.6745290462875513 -0.25611840275809655 0.12390481921362266
-0.8864994536935643 -0.33660347968044374 0.1628418452065457
-0.9322283514331411 -0.16830173984022187 0.16830173984022187
-0.8864994536935643 -0.1628418452065457 0.33660347968044374
-0.8447253506791795 -0.3256836904130914 0.3256836904130914
-0.7235007824176471 -0.27894558230682237 0.27894558230682237
-0.7592799811730797 -0.13947279115341119 0.2882982980414846
-0.6890730973406523 -0.1313092913188344 0.4324474470622269
-0.6595697102961948 -0.2626185826376688 0.4184183734602336
-0.7154651226868916 -0.2848742650148974 0.4538773509895406
-0.7474687821969109 -0.1424371325074487 0.46909532220493505
-0.62546042960658 -0.12902263515807583 0.62546042960658
-0.6051698013193874 -0.25804527031615165 0.6051698013193874
-0.5688030692018733 -0.11733511410240456 -0.5688030692018733
-0.5748223169242677 0.0 -0.5748223169242677
-0.6891877469522644 0.0 -0.4311167376932008
-0.6797592898300862 -0.12953445862196616 -0.4266023019014049
-0.6209955924180252 -0.11833648921606212 -0.38972346999829244
-0.6296089801330184 0.0 -0.39384764273252626
-0.6946819447461865 0.0 -0.2625650951550175
-0.6842663333388369 -0.12569346982601803 -0.2598156466655283
-0.5118824276553158 -0.09402812229708529 -0.19436154824254592
-0.5196740844897144 0.0 -0.19641834148070755
-0.5468055209512307 0.0 -0.09820917074035378
-0.5382872033056656 -0.09718077412127296 -0.09718077412127296
-0.6491662902759112 -0.11719855540876471 -0.11719855540876471
-0.6594392535405111 0.0 -0.1184387863004545
-0.6699909515884459 0.0 0.0
-0.6594392535405111 -0.1184387863004545 0.0
-0.7376133722681553 -0.13247927250520997 0.0
-0.749415935640756 0.0 0.0
-0.7376133722681553 0.0 0.13247927250520997
-0.7261225866709904 -0.13109201676406498 0.13109201676406498
-0.6260802832725025 -0.11303067622051212 0.11303067622051212
-0.635987913793513 0.0 0.11422680134226239
-0.6044314188200105 0.0 0.22845360268452478
-0.5953689653786411 -0.10936383603738006 0.22606135244102424
-0.542439770545283 -0.09964122682871138 0.20596415882927158
-0.5506965582705002 0.0 0.20814373443470482
-0.4991111414909943 0.0 0.31221560165205725
-0.49228303403035023 -0.09380911339636097 0.3089462382439073
-0.5354891532876593 -0.10204244150365407 0.3360614688956311
-0.5429165420658638 0.0 0.33961777395227033
-0.4528236986030271 0.0 0.4528236986030271
-0.4480819585275081 -0.09243225041810467 0.4480819585275081
-0.5002681811078227 0.0 -0.5002681811078227
-0.4950296264778771 0.1021168148553674 -0.4950296264778771
-0.5915948868061177 0.11273391115421 -0.37127221985840786
-0.5998004782668032 0.0 -0.37520113583086706
-0.44559893056235333 0.0 -0.2787413997320048
-0.4395028987784531 0.08375136744402895 -0.275822561186467
-0.48428207979370014 0.08895819071912221 -0.18388170745764465
-0.49165361585928713 0.0 -0.1858275998213365
-0.6518411541389552 0.0 -0.24637279830985664
-0.642067869814846 0.11794199785782082 -0.24379290733933623
-0.6751880887143605 0.12189645366966811 -0.12189645366966811
-0.6858728432001643 0.0 -0.12318639915492832
-0.5730572170182753 0.0 -0.10292411454119042
-0.5641299417501812 0.10184634542229738 -0.10184634542229738
-0.5730572170182753 0.10292411454119042 0.0
-0.5822267147175735 0.0 0.0
-0.6939781628065933 0.0 0.0
-0.6830486897914207 0.12267916622898102 0.0
-0.6724079309034919 0.12139453222962582 0.12139453222962582
-0.6830486897914207 0.0 0.12267916622898102
-0.591820416304665 0.0 0.10629408461601102
-0.5826008416989737 0.10518102687992242 0.10518102687992242
-0.5540223348641551 0.10176883800551488 0.21036205375984485
-0.5624554274624433 0.0 0.21258816923202203
-0.6700909202629364 0.0 0.25327056154544886
-0.6600440107587574 0.12124405061014135 0.2506184406972375
-0.5990129888213221 0.11414749952720922 0.37592766104585623
-0.6073214714933889 0.0 0.3799058423181733
-0.7355451253032278 0.0 0.46011528244542055
-0.7254824744420989 0.13824743695679662 0.45529718860258295
-0.6070629181367773 0.12522751831642692 0.6070629181367773
-0.6134870432605607 0.0 0.6134870432605607
-0.31858219189402814 0.06571848827983932 -0.31858219189402814
-0.30824703313952967 0.13143697655967865 -0.30824703313952967
-0.3644266467067987 0.14510249324602753 -0.2311852748546473
-0.38072791136353384 0.07255124662301377 -0.2389366439205211
-0.624277111695269 0.1189618132526657 -0.3917828808785115
-0.5975480327043413 0.2379236265053314 -0.3790730107909799
-0.6554674395213975 0.2527153405273199 -0.2527153405273199
-0.6878821934045697 0.12635767026365996 -0.261188587252341
-0.7085221007755392 0.13014903255630123 -0.26902555163218816
-0.6751347421004185 0.26029806511260245 -0.26029806511260245
-0.7085221007755392 0.26902555163218816 -0.13014903255630123
-0.7450702729798218 0.13451277581609408 -0.13451277581609408
-0.559274443277053 0.10096974813842081 -0.10096974813842081
-0.5318401737811104 0.20193949627684163 -0.0976941778053514
-0.5399356189477488 0.20407648167449682 0.0
[...]
CELL_DATA  1920
SCALARS cell_scalars float 1
LOOKUP_TABLE default
1.1469538636328747 1.1469538636328747 1.1469538636328747 1.1469538636328747 1.1469538636328747
1.147628751565876 1.147628751565876 1.147628751565876 1.147628751565876 1.147628751565876
0.969696250828655 0.969696250828655 0.969696250828655 0.969696250828655 0.969696250828655
0.9298199674989521 0.9298199674989521 0.9298199674989521 0.9298199674989521 0.9298199674989521
0.9255241937911811 0.9255241937911811 0.9255241937911811 0.9255241937911811 0.9255241937911811
0.7954522573843685 0.7954522573843685 0.7954522573843685 0.7954522573843685 0.7954522573843685
1.0042145611369275 1.0042145611369275 1.0042145611369275 1.0042145611369275 1.0042145611369275
0.8377794457188383 0.8377794457188383 0.8377794457188383 0.8377794457188383 0.8377794457188383
0.824415297303978 0.824415297303978 0.824415297303978 0.824415297303978 0.824415297303978
0.7530272349415883 0.7530272349415883 0.7530272349415883 0.7530272349415883 0.7530272349415883
0.969327303798857 0.969327303798857 0.969327303798857 0.969327303798857 0.969327303798857
0.7347250992309036 0.7347250992309036 0.7347250992309036 0.7347250992309036 0.7347250992309036
0.790197368742545 0.790197368742545 0.790197368742545 0.790197368742545 0.790197368742545
0.6838266691981153 0.6838266691981153 0.6838266691981153 0.6838266691981153 0.6838266691981153
0.9014858745933308 0.9014858745933308 0.9014858745933308 0.9014858745933308 0.9014858745933308
0.946025226173777 0.946025226173777 0.946025226173777 0.946025226173777 0.946025226173777
0.9996073282661645 0.9996073282661645 0.9996073282661645 0.9996073282661645 0.9996073282661645
0.7404940584536266 0.7404940584536266 0.7404940584536266 0.7404940584536266 0.7404940584536266
0.6249172505023912 0.6249172505023912 0.6249172505023912 0.6249172505023912 0.6249172505023912
0.5401505682590517 0.5401505682590517 0.5401505682590517 0.5401505682590517 0.5401505682590517
0.7320781889534154 0.7320781889534154 0.7320781889534154 0.7320781889534154 0.7320781889534154
0.9621333849743722 0.9621333849743722 0.9621333849743722 0.9621333849743722 0.9621333849743722
0.8240598630778786 0.8240598630778786 0.8240598630778786 0.8240598630778786 0.8240598630778786
0.8938950376808394 0.8938950376808394 0.8938950376808394 0.8938950376808394 0.8938950376808394
0.8129215165490248 0.8129215165490248 0.8129215165490248 0.8129215165490248 0.8129215165490248
0.7426462371480159 0.7426462371480159 0.7426462371480159 0.7426462371480159 0.7426462371480159
0.555554964841693 0.555554964841693 0.555554964841693 0.555554964841693 0.555554964841693
0.6699909515884459 0.6699909515884459 0.6699909515884459 0.6699909515884459 0.6699909515884459
0.749415935640756 0.749415935640756 0.749415935640756 0.749415935640756 0.749415935640756
0.6461643665788989 0.6461643665788989 0.6461643665788989 0.6461643665788989 0.6461643665788989
0.5887193843210867 0.5887193843210867 0.5887193843210867 0.5887193843210867 0.5887193843210867
0.6403894159283476 0.6403894159283476 0.6403894159283476 0.6403894159283476 0.6403894159283476
0.7074860465464026 0.7074860465464026 0.7074860465464026 0.7074860465464026 0.7074860465464026
0.5255998238611485 0.5255998238611485 0.5255998238611485 0.5255998238611485 0.5255998238611485
0.6968475055392208 0.6968475055392208 0.6968475055392208 0.6968475055392208 0.6968475055392208
0.5822267147175735 0.5822267147175735 0.5822267147175735 0.5822267147175735 0.5822267147175735
0.6939781628065933 0.6939781628065933 0.6939781628065933 0.6939781628065933 0.6939781628065933
0.6012901442559845 0.6012901442559845 0.6012901442559845 0.6012901442559845 0.6012901442559845
0.7163573261748468 0.7163573261748468 0.7163573261748468 0.7163573261748468 0.7163573261748468
0.8676016969192546 0.8676016969192546 0.8676016969192546 0.8676016969192546 0.8676016969192546
0.455311042789206 0.455311042789206 0.455311042789206 0.455311042789206 0.455311042789206
0.7465705934125824 0.7465705934125824 0.7465705934125824 0.7465705934125824 0.7465705934125824
0.7689714464098961 0.7689714464098961 0.7689714464098961 0.7689714464098961 0.7689714464098961
0.5772154562909155 0.5772154562909155 0.5772154562909155 0.5772154562909155 0.5772154562909155
0.635235067573385 0.635235067573385 0.635235067573385 0.635235067573385 0.635235067573385
0.7300063035622574 0.7300063035622574 0.7300063035622574 0.7300063035622574 0.7300063035622574
0.7981132968016329 0.7981132968016329 0.7981132968016329 0.7981132968016329 0.7981132968016329
0.8635263608944856 0.8635263608944856 0.8635263608944856 0.8635263608944856 0.8635263608944856
0.8899973351947633 0.8899973351947633 0.8899973351947633 0.8899973351947633 0.8899973351947633
0.9308695555832034 0.9308695555832034 0.9308695555832034 0.9308695555832034 0.9308695555832034
0.602942205719952 0.602942205719952 0.602942205719952 0.602942205719952 0.602942205719952
0.9627067120093817 0.9627067120093817 0.9627067120093817 0.9627067120093817 0.9627067120093817
0.7381180951723766 0.7381180951723766 0.7381180951723766 0.7381180951723766 0.7381180951723766
1.0906970309326964 1.0906970309326964 1.0906970309326964 1.0906970309326964 1.0906970309326964
0.7545286047983434 0.7545286047983434 0.7545286047983434 0.7545286047983434 0.7545286047983434
0.7809080646741854 0.7809080646741854 0.7809080646741854 0.7809080646741854 0.7809080646741854
0.9006278762590694 0.9006278762590694 0.9006278762590694 0.9006278762590694 0.9006278762590694
0.8044365377886223 0.8044365377886223 0.8044365377886223 0.8044365377886223 0.8044365377886223
1.1904855435596546 1.1904855435596546 1.1904855435596546 1.1904855435596546 1.1904855435596546
1.1927199196804998 1.1927199196804998 1.1927199196804998 1.1927199196804998 1.1927199196804998
0.8223223622891074 0.8223223622891074 0.8223223622891074 0.8223223622891074 0.8223223622891074
1.0480486025597477 1.0480486025597477 1.0480486025597477 1.0480486025597477 1.0480486025597477
0.9022968554526006 0.9022968554526006 0.9022968554526006 0.9022968554526006 0.9022968554526006
0.9237309180203825 0.9237309180203825 0.9237309180203825 0.9237309180203825 0.9237309180203825
0.9237309180203825 0.9237309180203825 0.9237309180203825 0.9237309180203825 0.9237309180203825
0.9022968554526006 0.9022968554526006 0.9022968554526006 0.9022968554526006 0.9022968554526006
1.0480486025597477 1.0480486025597477 1.0480486025597477 1.0480486025597477 1.0480486025597477
0.8223223622891074 0.8223223622891074 0.8223223622891074 0.8223223622891074 0.8223223622891074
1.1927199196804998 1.1927199196804998 1.1927199196804998 1.1927199196804998 1.1927199196804998
1.1904855435596546 1.1904855435596546 1.1904855435596546 1.1904855435596546 1.1904855435596546
0.8044365377886223 0.8044365377886223 0.8044365377886223 0.8044365377886223 0.8044365377886223
0.9006278762590694 0.9006278762590694 0.9006278762590694 0.9006278762590694 0.9006278762590694
0.7809080646741854 0.7809080646741854 0.7809080646741854 0.7809080646741854 0.7809080646741854
0.7545286047983434 0.7545286047983434 0.7545286047983434 0.7545286047983434 0.7545286047983434
1.0906970309326964 1.0906970309326964 1.0906970309326964 1.0906970309326964 1.0906970309326964
0.7381180951723766 0.7381180951723766 0.7381180951723766 0.7381180951723766 0.7381180951723766
0.9627067120093817 0.9627067120093817 0.9627067120093817 0.9627067120093817 0.9627067120093817
0.602942205719952 0.602942205719952 0.602942205719952 0.602942205719952 0.602942205719952
0.9308695555832034 0.9308695555832034 0.9308695555832034 0.9308695555832034 0.9308695555832034
0.8899973351947633 0.8899973351947633 0.8899973351947633 0.8899973351947633 0.8899973351947633
0.8635263608944856 0.8635263608944856 0.8635263608944856 0.8635263608944856 0.8635263608944856
0.7981132968016329 0.7981132968016329 0.7981132968016329 0.7981132968016329 0.7981132968016329
0.7300063035622574 0.7300063035622574 0.7300063035622574 0.7300063035622574 0.7300063035622574
0.635235067573385 0.635235067573385 0.635235067573385 0.635235067573385 0.635235067573385
0.5772154562909155 0.5772154562909155 0.5772154562909155 0.5772154562909155 0.5772154562909155
0.7689714464098961 0.7689714464098961 0.7689714464098961 0.7689714464098961 0.7689714464098961
0.7465705934125824 0.7465705934125824 0.7465705934125824 0.7465705934125824 0.7465705934125824
0.455311042789206 0.455311042789206 0.455311042789206 0.455311042789206 0.455311042789206
0.8676016969192546 0.8676016969192546 0.8676016969192546 0.8676016969192546 0.8676016969192546
0.7163573261748468 0.7163573261748468 0.7163573261748468 0.7163573261748468 0.7163573261748468
0.6012901442559845 0.6012901442559845 0.6012901442559845 0.6012901442559845 0.6012901442559845
0.6939781628065933 0.6939781628065933 0.6939781628065933 0.6939781628065933 0.6939781628065933
0.5822267147175735 0.5822267147175735 0.5822267147175735 0.5822267147175735 0.5822267147175735
0.6968475055392208 0.6968475055392208 0.6968475055392208 0.6968475055392208 0.6968475055392208
0.5255998238611485 0.5255998238611485 0.5255998238611485 0.5255998238611485 0.5255998238611485
0.7074860465464026 0.7074860465464026 0.7074860465464026 0.7074860465464026 0.7074860465464026
0.6403894159283476 0.6403894159283476 0.6403894159283476 0.6403894159283476 0.6403894159283476
0.5887193843210867 0.5887193843210867 0.5887193843210867 0.5887193843210867 0.5887193843210867
0.6461643665788989 0.6461643665788989 0.6461643665788989 0.6461643665788989 0.6461643665788989
0.749415935640756 0.749415935640756 0.749415935640756 0.749415935640756 0.749415935640756
0.6699909515884459 0.6699909515884459 0.6699909515884459 0.6699909515884459 0.6699909515884459
0.555554964841693 0.555554964841693 0.555554964841693 0.555554964841693 0.555554964841693
0.7426462371480159 0.7426462371480159 0.7426462371480159 0.7426462371480159 0.7426462371480159
0.8129215165490248 0.8129215165490248 0.8129215165490248 0.8129215165490248 0.8129215165490248
0.8938950376808394 0.8938950376808394 0.8938950376808394 0.8938950376808394 0.8938950376808394
0.8240598630778786 0.8240598630778786 0.8240598630778786 0.8240598630778786 0.8240598630778786
0.9621333849743722 0.9621333849743722 0.9621333849743722 0.9621333849743722 0.9621333849743722
0.7320781889534154 0.7320781889534154 0.7320781889534154 0.7320781889534154 0.7320781889534154
0.5401505682590517 0.5401505682590517 0.5401505682590517 0.5401505682590517 0.5401505682590517
0.6249172505023912 0.6249172505023912 0.6249172505023912 0.6249172505023912 0.6249172505023912
0.7404940584536266 0.7404940584536266 0.7404940584536266 0.7404940584536266 0.7404940584536266
0.9996073282661645 0.9996073282661645 0.9996073282661645 0.9996073282661645 0.9996073282661645
0.946025226173777 0.946025226173777 0.946025226173777 0.946025226173777 0.946025226173777
0.9014858745933308 0.9014858745933308 0.9014858745933308 0.9014858745933308 0.9014858745933308
0.6838266691981153 0.6838266691981153 0.6838266691981153 0.6838266691981153 0.6838266691981153
0.790197368742545 0.790197368742545 0.790197368742545 0.790197368742545 0.790197368742545
0.7347250992309036 0.7347250992309036 0.7347250992309036 0.7347250992309036 0.7347250992309036
0.969327303798857 0.969327303798857 0.969327303798857 0.969327303798857 0.969327303798857
0.7530272349415883 0.7530272349415883 0.7530272349415883 0.7530272349415883 0.7530272349415883
0.824415297303978 0.824415297303978 0.824415297303978 0.824415297303978 0.824415297303978
0.8377794457188383 0.8377794457188383 0.8377794457188383 0.8377794457188383 0.8377794457188383
1.0042145611369275 1.0042145611369275 1.0042145611369275 1.0042145611369275 1.0042145611369275
0.7954522573843685 0.7954522573843685 0.7954522573843685 0.7954522573843685 0.7954522573843685
0.9255241937911811 0.9255241937911811 0.9255241937911811 0.9255241937911811 0.9255241937911811
0.9298199674989521 0.9298199674989521 0.9298199674989521 0.9298199674989521 0.9298199674989521
0.969696250828655 0.969696250828655 0.969696250828655 0.969696250828655 0.969696250828655
1.147628751565876 1.147628751565876 1.147628751565876 1.147628751565876 1.147628751565876
1.1469538636328747 1.1469538636328747 1.1469538636328747 1.1469538636328747 1.1469538636328747
0.6814773433763615 0.6814773433763615 0.6814773433763615 0.6814773433763615 0.6814773433763615
0.8379072205424984 0.8379072205424984 0.8379072205424984 0.8379072205424984 0.8379072205424984
0.6735411042404341 0.6735411042404341 0.6735411042404341 0.6735411042404341 0.6735411042404341
0.8510524385594731 0.8510524385594731 0.8510524385594731 0.8510524385594731 0.8510524385594731
0.8747734176624736 0.8747734176624736 0.8747734176624736 0.8747734176624736 0.8747734176624736
1.0128161641632147 1.0128161641632147 1.0128161641632147 1.0128161641632147 1.0128161641632147
0.9689245072973154 0.9689245072973154 0.9689245072973154 0.9689245072973154 0.9689245072973154
1.0384041587427113 1.0384041587427113 1.0384041587427113 1.0384041587427113 1.0384041587427113
0.8664162537140527 0.8664162537140527 0.8664162537140527 0.8664162537140527 0.8664162537140527
0.7557149126119643 0.7557149126119643 0.7557149126119643 0.7557149126119643 0.7557149126119643
0.6930368073383119 0.6930368073383119 0.6930368073383119 0.6930368073383119 0.6930368073383119
0.9244628657006332 0.9244628657006332 0.9244628657006332 0.9244628657006332 0.9244628657006332
0.9941502825206338 0.9941502825206338 0.9941502825206338 0.9941502825206338 0.9941502825206338
0.9487049381513805 0.9487049381513805 0.9487049381513805 0.9487049381513805 0.9487049381513805
0.8261554071464005 0.8261554071464005 0.8261554071464005 0.8261554071464005 0.8261554071464005
0.7118870481256904 0.7118870481256904 0.7118870481256904 0.7118870481256904 0.7118870481256904
0.7754747848119792 0.7754747848119792 0.7754747848119792 0.7754747848119792 0.7754747848119792
0.5714546570153282 0.5714546570153282 0.5714546570153282 0.5714546570153282 0.5714546570153282
0.6956912013770776 0.6956912013770776 0.6956912013770776 0.6956912013770776 0.6956912013770776
0.7149160607957109 0.7149160607957109 0.7149160607957109 0.7149160607957109 0.7149160607957109
1.1157302100778217 1.1157302100778217 1.1157302100778217 1.1157302100778217 1.1157302100778217
0.8048863379812494 0.8048863379812494 0.8048863379812494 0.8048863379812494 0.8048863379812494
0.8583457382074235 0.8583457382074235 0.8583457382074235 0.8583457382074235 0.8583457382074235
0.6675591981351728 0.6675591981351728 0.6675591981351728 0.6675591981351728 0.6675591981351728
0.6794689106835863 0.6794689106835863 0.6794689106835863 0.6794689106835863 0.6794689106835863
0.49693443465507275 0.49693443465507275 0.49693443465507275 0.49693443465507275 0.49693443465507275
0.6734709544457281 0.6734709544457281 0.6734709544457281 0.6734709544457281 0.6734709544457281
0.8904421665516136 0.8904421665516136 0.8904421665516136 0.8904421665516136 0.8904421665516136
0.6443785631080416 0.6443785631080416 0.6443785631080416 0.6443785631080416 0.6443785631080416
0.7675884265365632 0.7675884265365632 0.7675884265365632 0.7675884265365632 0.7675884265365632
0.5879846355593084 0.5879846355593084 0.5879846355593084 0.5879846355593084 0.5879846355593084
0.616013665334994 0.616013665334994 0.616013665334994 0.616013665334994 0.616013665334994
0.7149816169884088 0.7149816169884088 0.7149816169884088 0.7149816169884088 0.7149816169884088
0.7467305280480259 0.7467305280480259 0.7467305280480259 0.7467305280480259 0.7467305280480259
0.6479300849986876 0.6479300849986876 0.6479300849986876 0.6479300849986876 0.6479300849986876
0.7680248528278 0.7680248528278 0.7680248528278 0.7680248528278 0.7680248528278
0.7108765865098362 0.7108765865098362 0.7108765865098362 0.7108765865098362 0.7108765865098362
0.6088943908517214 0.6088943908517214 0.6088943908517214 0.6088943908517214 0.6088943908517214
0.6626912242171326 0.6626912242171326 0.6626912242171326 0.6626912242171326 0.6626912242171326
0.7947958120204465 0.7947958120204465 0.7947958120204465 0.7947958120204465 0.7947958120204465
0.8102647737346469 0.8102647737346469 0.8102647737346469 0.8102647737346469 0.8102647737346469
0.7699514071144166 0.7699514071144166 0.7699514071144166 0.7699514071144166 0.7699514071144166
0.7276403031199333 0.7276403031199333 0.7276403031199333 0.7276403031199333 0.7276403031199333
0.6239825349624922 0.6239825349624922 0.6239825349624922 0.6239825349624922 0.6239825349624922
0.7724284093809978 0.7724284093809978 0.7724284093809978 0.7724284093809978 0.7724284093809978
0.723151741685739 0.723151741685739 0.723151741685739 0.723151741685739 0.723151741685739
0.8569705259042549 0.8569705259042549 0.8569705259042549 0.8569705259042549 0.8569705259042549
0.598949689571644 0.598949689571644 0.598949689571644 0.598949689571644 0.598949689571644
0.8957471026457154 0.8957471026457154 0.8957471026457154 0.8957471026457154 0.8957471026457154
0.641244657620319 0.641244657620319 0.641244657620319 0.641244657620319 0.641244657620319
1.2535913053207977 1.2535913053207977 1.2535913053207977 1.2535913053207977 1.2535913053207977
1.129846854711137 1.129846854711137 1.129846854711137 1.129846854711137 1.129846854711137
0.6747658411176483 0.6747658411176483 0.6747658411176483 0.6747658411176483 0.6747658411176483
0.7133771318082203 0.7133771318082203 0.7133771318082203 0.7133771318082203 0.7133771318082203
0.9814462689557021 0.9814462689557021 0.9814462689557021 0.9814462689557021 0.9814462689557021
0.7261488475181862 0.7261488475181862 0.7261488475181862 0.7261488475181862 0.7261488475181862
0.9153395901820949 0.9153395901820949 0.9153395901820949 0.9153395901820949 0.9153395901820949
0.9909004418765367 0.9909004418765367 0.9909004418765367 0.9909004418765367 0.9909004418765367
1.0349319745628962 1.0349319745628962 1.0349319745628962 1.0349319745628962 1.0349319745628962
0.9830796661544324 0.9830796661544324 0.9830796661544324 0.9830796661544324 0.9830796661544324
0.7880870061695295 0.7880870061695295 0.7880870061695295 0.7880870061695295 0.7880870061695295
0.6649156341618964 0.6649156341618964 0.6649156341618964 0.6649156341618964 0.6649156341618964
0.9333309234925696 0.9333309234925696 0.9333309234925696 0.9333309234925696 0.9333309234925696
1.1876587011282147 1.1876587011282147 1.1876587011282147 1.1876587011282147 1.1876587011282147
1.1876587011282147 1.1876587011282147 1.1876587011282147 1.1876587011282147 1.1876587011282147
0.9333309234925696 0.9333309234925696 0.9333309234925696 0.9333309234925696 0.9333309234925696
0.6649156341618964 0.6649156341618964 0.6649156341618964 0.6649156341618964 0.6649156341618964
0.7880870061695295 0.7880870061695295 0.7880870061695295 0.7880870061695295 0.7880870061695295
0.9830796661544324 0.9830796661544324 0.9830796661544324 0.9830796661544324 0.9830796661544324
1.0349319745628962 1.0349319745628962 1.0349319745628962 1.0349319745628962 1.0349319745628962
0.9909004418765367 0.9909004418765367 0.9909004418765367 0.9909004418765367 0.9909004418765367
0.9153395901820949 0.9153395901820949 0.9153395901820949 0.9153395901820949 0.9153395901820949
0.7261488475181862 0.7261488475181862 0.7261488475181862 0.7261488475181862 0.7261488475181862
0.9814462689557021 0.9814462689557021 0.9814462689557021 0.9814462689557021 0.9814462689557021
0.7133771318082203 0.7133771318082203 0.7133771318082203 0.7133771318082203 0.7133771318082203
0.6747658411176483 0.6747658411176483 0.6747658411176483 0.6747658411176483 0.6747658411176483
1.129846854711137 1.129846854711137 1.129846854711137 1.129846854711137 1.129846854711137
1.2535913053207977 1.2535913053207977 1.2535913053207977 1.2535913053207977 1.2535913053207977
0.641244657620319 0.641244657620319 0.641244657620319 0.641244657620319 0.641244657620319
0.8957471026457154 0.8957471026457154 0.8957471026457154 0.8957471026457154 0.8957471026457154
0.598949689571644 0.598949689571644 0.598949689571644 0.598949689571644 0.598949689571644