# vtk DataFile Version 2.0
Sway data processing
ASCII
DATASET POLYDATA
POINTS    1537  float
0 0 0
-0.3039528115487 -0.3039528115487 -0.3039528115487
-0.3355548182807665 -0.22796460866152501 -0.3355548182807665
-0.38793075331134896 -0.25166611371057485 -0.25166611371057485
-0.3355548182807665 -0.3355548182807665 -0.22796460866152501
-0.2723152376638435 -0.2723152376638435 -0.1850017737926385
-0.31482026044609757 -0.20423642824788266 -0.20423642824788266
-0.34196148766629236 -0.2169338088480702 -0.13615761883192176
-0.2892450784640936 -0.2892450784640936 -0.12333451586175899
-0.2854517588105115 -0.2854517588105115 -0.12171703892673995
-0.3374768159172664 -0.21408881910788363 -0.13437197264481063
-0.35257258056975005 -0.2212669642160687 -0.06718598632240531
-0.29502261895475823 -0.29502261895475823 -0.060858519463369974
-0.3852536592697425 -0.3852536592697425 -0.07947176187395168
-0.4604049591312924 -0.28894024445230687 -0.08773444956206147
-0.4667909085121279 -0.29199789832672784 0.0
-0.38933053110230376 -0.38933053110230376 0.0
-0.26271123032048904 -0.26271123032048904 0.0
-0.3149796999748174 -0.19703342274036678 0.0
-0.3106706091520306 -0.19497018868325589 0.05920117572254706
-0.25996025157767455 -0.25996025157767455 0.0536257053319989
-0.2758604118978246 -0.2758604118978246 0.05690565796662367
-0.329672408320547 -0.20689530892336847 0.06282214538778305
-0.31555713855004386 -0.20018339621233003 0.1256442907755661
-0.26691119494977333 -0.26691119494977333 0.11381131593324734
-0.3534874783806283 -0.3534874783806283 0.1507275672269766
-0.4179123967132659 -0.26511560878547125 0.16639872871400146
-0.384743002712969 -0.24959809307100217 0.24959809307100217
-0.33279745742800293 -0.33279745742800293 0.2260913508404649
-0.25285962516006955 -0.25285962516006955 0.17178428785869465
-0.2923278687308112 -0.18964471887005216 0.18964471887005216
-0.25285962516006955 -0.17178428785869465 0.25285962516006955
-0.2290457171449262 -0.2290457171449262 0.2290457171449262
-0.2784104012170712 -0.18914262201904342 -0.2784104012170712
-0.29571917839081574 -0.12609508134602895 -0.29571917839081574
-0.3496155257366998 -0.1392052006085356 -0.22178938379311183
-0.3218668032460912 -0.2088078009128034 -0.2088078009128034
-0.2764484986262869 -0.17934313971381 -0.17934313971381
-0.30028162647284246 -0.11956209314254 -0.19049290433961427
-0.3293874601991385 -0.12699526955974283 -0.12699526955974283
-0.30028162647284246 -0.19049290433961427 -0.11956209314254
-0.3544415314637574 -0.2248509092620701 -0.1411267545611451
-0.38879700103295817 -0.1499006061747134 -0.1499006061747134
-0.4080241332124009 -0.15492659635678252 -0.0749503030873567
-0.370296149291355 -0.23238989453517378 -0.07056337728057255
-0.34755151890014796 -0.21811585396529656 -0.06622917629448795
-0.3829621439954761 -0.1454105693101977 -0.07034664478657977
-0.3887914310453289 -0.14694934834555107 0.0
-0.35237215856292775 -0.2204240225183266 0.0
-0.33548691920550405 -0.2098615751458466 0.0
-0.3701610250561358 -0.13990771676389774 0.0
-0.3646110702541011 -0.13844267412257757 0.06697572030702577
-0.3308972786514333 -0.20766401118386638 0.06305555582816574
-0.292922040376909 -0.18383156886856403 0.05581902077152787
-0.32276668783168055 -0.12255437924570935 0.05928928980015406
-0.30755710274855974 -0.11857857960030813 0.11857857960030813
-0.28038027613673616 -0.1778678694004622 0.11163804154305575
-0.428004834940225 -0.27151805802055773 0.17041719981894649
-0.46949068176391545 -0.1810120386803718 0.1810120386803718
-0.428004834940225 -0.17041719981894649 0.27151805802055773
-0.394034411674928 -0.2556257997284197 0.2556257997284197
-0.32872439748582133 -0.21325659512925932 0.21325659512925932
-0.3570643256478206 -0.14217106341950622 0.2265147595864336
-0.3020196794485781 -0.12878162402385737 0.3020196794485781
-0.28434212683901244 -0.19317243603578607 0.28434212683901244
-0.28907796760258875 -0.12326325955099174 -0.28907796760258875
-0.2987704102424118 -0.06163162977549587 -0.2987704102424118
-0.3570514522251043 -0.06803947699740381 -0.22407780768180885
-0.3417639199873233 -0.13607895399480763 -0.2168084757019416
-0.25495959364255427 -0.10151637661198082 -0.16174147600273012
-0.26636425861504953 -0.05075818830599041 -0.16716447655734842
-0.29350304060185023 -0.05391382533424337 -0.11144298437156562
-0.2796724328084076 -0.10782765066848674 -0.10782765066848674
-0.27936151080098165 -0.10770777475055944 -0.10770777475055944
-0.2931767426051075 -0.05385388737527972 -0.11131908915577192
-0.3082998757625538 -0.05565954457788596 -0.05565954457788596
-0.2931767426051075 -0.11131908915577192 -0.05385388737527972
-0.3033058763526771 -0.1151651170933809 -0.0557145166434939
-0.3189515074309097 -0.05758255854669045 -0.05758255854669045
-0.3239988692057084 -0.058191914760024804 0.0
-0.307922669539389 -0.11638382952004961 0.0
-0.33742609835732085 -0.12753507744518447 0.0
-0.35504262960503247 -0.06376753872259223 0.0
-0.34951165784119376 -0.06309979740337475 0.06309979740337475
-0.3323669498566757 -0.1261995948067495 0.06105277016791177
-0.47139344756941215 -0.1789878990780216 0.08659066680825346
-0.4957096529197874 -0.0894939495390108 0.0894939495390108
-0.47139344756941215 -0.08659066680825346 0.1789878990780216
-0.44918019255044456 -0.17318133361650692 0.17318133361650692
-0.37297388556902744 -0.14380000716465405 0.14380000716465405
-0.3914185190879679 -0.07190000358232702 0.14862145147121444
-0.3552259745973137 -0.06769161524725183 0.22293217720682165
-0.3400166020978849 -0.13538323049450365 0.2157000107469811
-0.3116549353138811 -0.12409056405487577 0.19770791332477713
-0.3255956546000224 -0.062045282027437886 0.20433682601996359
-0.27244910135995143 -0.05620195833335389 0.27244910135995143
-0.26361055109970283 -0.11240391666670778 0.26361055109970283
-0.2678722978856014 -0.055257835864674754 -0.2678722978856014
-0.2707070043178345 0.0 -0.2707070043178345
-0.3245662962222558 0.0 -0.2030302532383759
-0.3201260556335796 -0.06100299904345023 -0.20090422341420106
-0.3399076536417812 -0.06477256663451657 -0.2133187286248565
-0.3446222706919767 0.0 -0.21557613253306843
-0.3802405568557331 0.0 -0.1437174216887123
-0.37453947607844223 -0.0687994776908109 -0.14221248574990433
-0.35412017018798464 -0.06504863787338626 -0.13445928366190477
-0.35951043696639723 0.0 -0.13588217284932133
-0.37827995976718026 0.0 -0.06794108642466067
-0.37238698917199886 -0.06722964183095238 -0.06722964183095238
-0.40392149508699315 -0.07292278793870187 -0.07292278793870187
-0.410313494707071 0.0 -0.073694479142525
-0.41687892750152006 0.0 0.0
-0.410313494707071 -0.073694479142525 0.0
-0.4384725159461522 -0.07875198865694855 0.0
-0.4454885216900351 0.0 0.0
-0.4384725159461522 0.0 0.07875198865694855
-0.43164184575982734 -0.07792733777892806 0.07792733777892806
-0.2784950083581594 -0.05027866227350728 0.05027866227350728
-0.2829021518483456 0.0 0.050810726426746645
-0.26886509211941834 0.0 0.10162145285349329
-0.26483390296631565 -0.04864756684575857 0.10055732454701456
-0.3115604440440747 -0.05723080526459683 0.1182993730668117
-0.3163028847531333 0.0 0.11955125314701635
-0.286673834247 0.0 0.17932687972052455
-0.2827519828121754 -0.05388102165844288 0.17744905960021756
-0.28961057687595626 -0.05518799058443102 0.18175336563794392
-0.29362755898573634 0.0 0.18367673523875994
-0.2449023136516799 0.0 0.2449023136516799
-0.2423378208505919 -0.04999047543947154 0.2423378208505919
-0.2352846414572997 0.0 -0.2352846414572997
-0.23282086004083666 0.04802727632367277 -0.23282086004083666
-0.27823714576831926 0.05302067744396589 -0.1746156450306275
-0.2820963751130621 0.0 -0.17646348109297477
-0.18320706112753174 0.0 -0.11460393900637789
-0.18070069050797274 0.034434198204803576 -0.11340386469031326
-0.19911155640288805 0.03657497262012005 -0.07560257646020885
-0.2021423479195271 0.0 -0.07640262600425192
-0.314894708886041 0.0 -0.11901901269750652
-0.31017338145441214 0.056976014547494264 -0.11777270596930849
-0.3261732636686323 0.05888635298465424 -0.05888635298465424
-0.3313349086981953 0.0 -0.05950950634875326
-0.30901859615051686 0.0 -0.05550137829350356
-0.30420460203462446 0.0549201960132635 -0.0549201960132635
-0.30901859615051686 0.05550137829350356 0.0
-0.31396320765228974 0.0 0.0
-0.4775334751440392 0.0 0.0
-0.47001279292354853 0.08441678962948194 0.0
-0.4626907778483586 0.08353281982916529 0.08353281982916529
-0.47001279292354853 0.0 0.08441678962948194
-0.23737968469290793 0.0 0.042634649964290325
-0.2336817052846155 0.042188201536425184 0.042188201536425184
-0.22221884128982045 0.04081956960551435 0.08437640307285037
-0.22560136207960205 0.0 0.08526929992858065
-0.3026687609083291 0.0 0.11439803871307241
-0.2981307414267418 0.05476389166902725 0.11320012048043572
-0.2705640587152013 0.05155849929906212 0.16980018072065356
-0.2743168601326507 0.0 0.17159705806960862
-0.3271469292134618 0.0 0.20464455076654892
-0.3226713841847208 0.06148803508609045 0.20250161683751658
-0.27000215578335546 0.05569719200212587 0.27000215578335546
-0.2728594010220652 0.0 0.2728594010220652
-0.1362887728936089 0.02811422719780155 -0.1362887728936089
-0.1318674143238249 0.0562284543956031 -0.1318674143238249
-0.15590093154335333 0.06207453288814844 -0.09890056074286868
-0.16287457731894459 0.03103726644407422 -0.10221657967020668
-0.30448368039411805 0.05802219887121312 -0.1910874053372788
-0.2914468924160968 0.11604439774242624 -0.18488831850695497
-0.31969638903148756 0.12325887900463664 -0.12325887900463664
-0.33550629680564215 0.06162943950231832 -0.12739160355818588
-0.40841402100489715 0.07502192191045813 -0.15507463659199347
-0.38916851632365546 0.15004384382091626 -0.15004384382091626
-0.40841402100489715 0.15507463659199347 -0.07502192191045813
-0.4294815162234539 0.07753731829599673 -0.07753731829599673
[...]
CELL_DATA  1920
SCALARS cell_scalars float 1
LOOKUP_TABLE default
0.5264617127057567 0.5264617127057567 0.5264617127057567 0.5264617127057567 0.5264617127057567
0.42724329559895236 0.42724329559895236 0.42724329559895236 0.42724329559895236 0.42724329559895236
0.42164019113590484 0.42164019113590484 0.42164019113590484 0.42164019113590484 0.42164019113590484
0.5505965173307981 0.5505965173307981 0.5505965173307981 0.5505965173307981 0.5505965173307981
0.3715297849069574 0.3715297849069574 0.3715297849069574 0.3715297849069574 0.3715297849069574
0.3942539633453154 0.3942539633453154 0.3942539633453154 0.3942539633453154 0.3942539633453154
0.5221356090767542 0.5221356090767542 0.5221356090767542 0.5221356090767542 0.5221356090767542
0.39671881935106207 0.39671881935106207 0.39671881935106207 0.39671881935106207 0.39671881935106207
0.43680617495170543 0.43680617495170543 0.43680617495170543 0.43680617495170543 0.43680617495170543
0.37516888985834435 0.37516888985834435 0.37516888985834435 0.37516888985834435 0.37516888985834435
0.4428357387060298 0.4428357387060298 0.4428357387060298 0.4428357387060298 0.4428357387060298
0.41563552282433325 0.41563552282433325 0.41563552282433325 0.41563552282433325 0.41563552282433325
0.3957187810563156 0.3957187810563156 0.3957187810563156 0.3957187810563156 0.3957187810563156
0.350304339869122 0.350304339869122 0.350304339869122 0.350304339869122 0.350304339869122
0.5347450014330147 0.5347450014330147 0.5347450014330147 0.5347450014330147 0.5347450014330147
0.44611263178110744 0.44611263178110744 0.44611263178110744 0.44611263178110744 0.44611263178110744
0.42699645649773477 0.42699645649773477 0.42699645649773477 0.42699645649773477 0.42699645649773477
0.31854399094998426 0.31854399094998426 0.31854399094998426 0.31854399094998426 0.31854399094998426
0.31818985401869976 0.31818985401869976 0.31818985401869976 0.31818985401869976 0.31818985401869976
0.32918318029634464 0.32918318029634464 0.32918318029634464 0.32918318029634464 0.32918318029634464
0.36072367240256575 0.36072367240256575 0.36072367240256575 0.36072367240256575 0.36072367240256575
0.5116115655514818 0.5116115655514818 0.5116115655514818 0.5116115655514818 0.5116115655514818
0.42481337483366394 0.42481337483366394 0.42481337483366394 0.42481337483366394 0.42481337483366394
0.389378589272952 0.389378589272952 0.389378589272952 0.389378589272952 0.389378589272952
0.3828375169356735 0.3828375169356735 0.3828375169356735 0.3828375169356735 0.3828375169356735
0.4064942538029402 0.4064942538029402 0.4064942538029402 0.4064942538029402 0.4064942538029402
0.38433282345647074 0.38433282345647074 0.38433282345647074 0.38433282345647074 0.38433282345647074
0.41687892750152006 0.41687892750152006 0.41687892750152006 0.41687892750152006 0.41687892750152006
0.4454885216900351 0.4454885216900351 0.4454885216900351 0.4454885216900351 0.4454885216900351
0.28742887370693654 0.28742887370693654 0.28742887370693654 0.28742887370693654 0.28742887370693654
0.33814200719841936 0.33814200719841936 0.33814200719841936 0.33814200719841936 0.33814200719841936
0.34634417342275525 0.34634417342275525 0.34634417342275525 0.34634417342275525 0.34634417342275525
0.3327427309670042 0.3327427309670042 0.3327427309670042 0.3327427309670042 0.3327427309670042
0.21609925979226474 0.21609925979226474 0.21609925979226474 0.21609925979226474 0.21609925979226474
0.33663660387413863 0.33663660387413863 0.33663660387413863 0.33663660387413863 0.33663660387413863
0.31396320765228974 0.31396320765228974 0.31396320765228974 0.31396320765228974 0.31396320765228974
0.4775334751440392 0.4775334751440392 0.4775334751440392 0.4775334751440392 0.4775334751440392
0.24117800082611587 0.24117800082611587 0.24117800082611587 0.24117800082611587 0.24117800082611587
0.3235665157138187 0.3235665157138187 0.3235665157138187 0.3235665157138187 0.3235665157138187
0.38588146554640373 0.38588146554640373 0.38588146554640373 0.38588146554640373 0.38588146554640373
0.1947810796885083 0.1947810796885083 0.1947810796885083 0.1947810796885083 0.1947810796885083
0.3641308606349255 0.3641308606349255 0.3641308606349255 0.3641308606349255 0.3641308606349255
0.4432588907564814 0.4432588907564814 0.4432588907564814 0.4432588907564814 0.4432588907564814
0.318368925414426 0.318368925414426 0.318368925414426 0.318368925414426 0.318368925414426
0.3165502635445607 0.3165502635445607 0.3165502635445607 0.3165502635445607 0.3165502635445607
0.3565060777222323 0.3565060777222323 0.3565060777222323 0.3565060777222323 0.3565060777222323
0.34473357410226824 0.34473357410226824 0.34473357410226824 0.34473357410226824 0.34473357410226824
0.5751211155745729 0.5751211155745729 0.5751211155745729 0.5751211155745729 0.5751211155745729
0.44174976412346073 0.44174976412346073 0.44174976412346073 0.44174976412346073 0.44174976412346073
0.410443061408743 0.410443061408743 0.410443061408743 0.410443061408743 0.410443061408743
0.35654871365596225 0.35654871365596225 0.35654871365596225 0.35654871365596225 0.35654871365596225
0.47397596952274085 0.47397596952274085 0.47397596952274085 0.47397596952274085 0.47397596952274085
0.3521262340980918 0.3521262340980918 0.3521262340980918 0.3521262340980918 0.3521262340980918
0.5688818485978168 0.5688818485978168 0.5688818485978168 0.5688818485978168 0.5688818485978168
0.37295128031601094 0.37295128031601094 0.37295128031601094 0.37295128031601094 0.37295128031601094
0.43014252250750956 0.43014252250750956 0.43014252250750956 0.43014252250750956 0.43014252250750956
0.4258299958233758 0.4258299958233758 0.4258299958233758 0.4258299958233758 0.4258299958233758
0.46610456235141046 0.46610456235141046 0.46610456235141046 0.46610456235141046 0.46610456235141046
0.6065443073655616 0.6065443073655616 0.6065443073655616 0.6065443073655616 0.6065443073655616
0.5503190151049309 0.5503190151049309 0.5503190151049309 0.5503190151049309 0.5503190151049309
0.4478453185700297 0.4478453185700297 0.4478453185700297 0.4478453185700297 0.4478453185700297
0.46209311922469054 0.46209311922469054 0.46209311922469054 0.46209311922469054 0.46209311922469054
0.5125386372148615 0.5125386372148615 0.5125386372148615 0.5125386372148615 0.5125386372148615
0.41711834010317156 0.41711834010317156 0.41711834010317156 0.41711834010317156 0.41711834010317156
0.41711834010317156 0.41711834010317156 0.41711834010317156 0.41711834010317156 0.41711834010317156
0.5125386372148615 0.5125386372148615 0.5125386372148615 0.5125386372148615 0.5125386372148615
0.46209311922469054 0.46209311922469054 0.46209311922469054 0.46209311922469054 0.46209311922469054
0.4478453185700297 0.4478453185700297 0.4478453185700297 0.4478453185700297 0.4478453185700297
0.5503190151049309 0.5503190151049309 0.5503190151049309 0.5503190151049309 0.5503190151049309
0.6065443073655616 0.6065443073655616 0.6065443073655616 0.6065443073655616 0.6065443073655616
0.46610456235141046 0.46610456235141046 0.46610456235141046 0.46610456235141046 0.46610456235141046
0.4258299958233758 0.4258299958233758 0.4258299958233758 0.4258299958233758 0.4258299958233758
0.43014252250750956 0.43014252250750956 0.43014252250750956 0.43014252250750956 0.43014252250750956
0.37295128031601094 0.37295128031601094 0.37295128031601094 0.37295128031601094 0.37295128031601094
0.5688818485978168 0.5688818485978168 0.5688818485978168 0.5688818485978168 0.5688818485978168
0.3521262340980918 0.3521262340980918 0.3521262340980918 0.3521262340980918 0.3521262340980918
0.47397596952274085 0.47397596952274085 0.47397596952274085 0.47397596952274085 0.47397596952274085
0.35654871365596225 0.35654871365596225 0.35654871365596225 0.35654871365596225 0.35654871365596225
0.410443061408743 0.410443061408743 0.410443061408743 0.410443061408743 0.410443061408743
0.44174976412346073 0.44174976412346073 0.44174976412346073 0.44174976412346073 0.44174976412346073
0.5751211155745729 0.5751211155745729 0.5751211155745729 0.5751211155745729 0.5751211155745729
0.34473357410226824 0.34473357410226824 0.34473357410226824 0.34473357410226824 0.34473357410226824
0.3565060777222323 0.3565060777222323 0.3565060777222323 0.3565060777222323 0.3565060777222323
0.3165502635445607 0.3165502635445607 0.3165502635445607 0.3165502635445607 0.3165502635445607
0.318368925414426 0.318368925414426 0.318368925414426 0.318368925414426 0.318368925414426
0.4432588907564814 0.4432588907564814 0.4432588907564814 0.4432588907564814 0.4432588907564814
0.3641308606349255 0.3641308606349255 0.3641308606349255 0.3641308606349255 0.3641308606349255
0.1947810796885083 0.1947810796885083 0.1947810796885083 0.1947810796885083 0.1947810796885083
0.38588146554640373 0.38588146554640373 0.38588146554640373 0.38588146554640373 0.38588146554640373
0.3235665157138187 0.3235665157138187 0.3235665157138187 0.3235665157138187 0.3235665157138187
0.24117800082611587 0.24117800082611587 0.24117800082611587 0.24117800082611587 0.24117800082611587
0.4775334751440392 0.4775334751440392 0.4775334751440392 0.4775334751440392 0.4775334751440392
0.31396320765228974 0.31396320765228974 0.31396320765228974 0.31396320765228974 0.31396320765228974
0.33663660387413863 0.33663660387413863 0.33663660387413863 0.33663660387413863 0.33663660387413863
0.21609925979226474 0.21609925979226474 0.21609925979226474 0.21609925979226474 0.21609925979226474
0.3327427309670042 0.3327427309670042 0.3327427309670042 0.3327427309670042 0.3327427309670042
0.34634417342275525 0.34634417342275525 0.34634417342275525 0.34634417342275525 0.34634417342275525
0.33814200719841936 0.33814200719841936 0.33814200719841936 0.33814200719841936 0.33814200719841936
0.28742887370693654 0.28742887370693654 0.28742887370693654 0.28742887370693654 0.28742887370693654
0.4454885216900351 0.4454885216900351 0.4454885216900351 0.4454885216900351 0.4454885216900351
0.41687892750152006 0.41687892750152006 0.41687892750152006 0.41687892750152006 0.41687892750152006
0.38433282345647074 0.38433282345647074 0.38433282345647074 0.38433282345647074 0.38433282345647074
0.4064942538029402 0.4064942538029402 0.4064942538029402 0.4064942538029402 0.4064942538029402
0.3828375169356735 0.3828375169356735 0.3828375169356735 0.3828375169356735 0.3828375169356735
0.389378589272952 0.389378589272952 0.389378589272952 0.389378589272952 0.389378589272952
0.42481337483366394 0.42481337483366394 0.42481337483366394 0.42481337483366394 0.42481337483366394
0.5116115655514818 0.5116115655514818 0.5116115655514818 0.5116115655514818 0.5116115655514818
0.36072367240256575 0.36072367240256575 0.36072367240256575 0.36072367240256575 0.36072367240256575
0.32918318029634464 0.32918318029634464 0.32918318029634464 0.32918318029634464 0.32918318029634464
0.31818985401869976 0.31818985401869976 0.31818985401869976 0.31818985401869976 0.31818985401869976
0.31854399094998426 0.31854399094998426 0.31854399094998426 0.31854399094998426 0.31854399094998426
0.42699645649773477 0.42699645649773477 0.42699645649773477 0.42699645649773477 0.42699645649773477
0.44611263178110744 0.44611263178110744 0.44611263178110744 0.44611263178110744 0.44611263178110744
0.5347450014330147 0.5347450014330147 0.5347450014330147 0.5347450014330147 0.5347450014330147
0.350304339869122 0.350304339869122 0.350304339869122 0.350304339869122 0.350304339869122
0.3957187810563156 0.3957187810563156 0.3957187810563156 0.3957187810563156 0.3957187810563156
0.41563552282433325 0.41563552282433325 0.41563552282433325 0.41563552282433325 0.41563552282433325
0.4428357387060298 0.4428357387060298 0.4428357387060298 0.4428357387060298 0.4428357387060298
0.37516888985834435 0.37516888985834435 0.37516888985834435 0.37516888985834435 0.37516888985834435
0.43680617495170543 0.43680617495170543 0.43680617495170543 0.43680617495170543 0.43680617495170543
0.39671881935106207 0.39671881935106207 0.39671881935106207 0.39671881935106207 0.39671881935106207
0.5221356090767542 0.5221356090767542 0.5221356090767542 0.5221356090767542 0.5221356090767542
0.3942539633453154 0.3942539633453154 0.3942539633453154 0.3942539633453154 0.3942539633453154
0.3715297849069574 0.3715297849069574 0.3715297849069574 0.3715297849069574 0.3715297849069574
0.5505965173307981 0.5505965173307981 0.5505965173307981 0.5505965173307981 0.5505965173307981
0.42164019113590484 0.42164019113590484 0.42164019113590484 0.42164019113590484 0.42164019113590484
0.42724329559895236 0.42724329559895236 0.42724329559895236 0.42724329559895236 0.42724329559895236
0.5264617127057567 0.5264617127057567 0.5264617127057567 0.5264617127057567 0.5264617127057567
0.3438901455117352 0.3438901455117352 0.3438901455117352 0.3438901455117352 0.3438901455117352
0.39205712217837824 0.39205712217837824 0.39205712217837824 0.39205712217837824 0.39205712217837824
0.3270251551841894 0.3270251551841894 0.3270251551841894 0.3270251551841894 0.3270251551841894
0.33115041535696377 0.33115041535696377 0.33115041535696377 0.33115041535696377 0.33115041535696377
0.4218036044551038 0.4218036044551038 0.4218036044551038 0.4218036044551038 0.4218036044551038
0.47925868870332095 0.47925868870332095 0.47925868870332095 0.47925868870332095 0.47925868870332095
0.5211303363110501 0.5211303363110501 0.5211303363110501 0.5211303363110501 0.5211303363110501
0.6297261228539967 0.6297261228539967 0.6297261228539967 0.6297261228539967 0.6297261228539967
0.3795587415815573 0.3795587415815573 0.3795587415815573 0.3795587415815573 0.3795587415815573
0.37999923284945486 0.37999923284945486 0.37999923284945486 0.37999923284945486 0.37999923284945486
0.37786895685510585 0.37786895685510585 0.37786895685510585 0.37786895685510585 0.37786895685510585
0.411866329345153 0.411866329345153 0.411866329345153 0.411866329345153 0.411866329345153
0.4711035050901981 0.4711035050901981 0.4711035050901981 0.4711035050901981 0.4711035050901981
0.5070170645253206 0.5070170645253206 0.5070170645253206 0.5070170645253206 0.5070170645253206
0.435014560613542 0.435014560613542 0.435014560613542 0.435014560613542 0.435014560613542
0.39556685022878474 0.39556685022878474 0.39556685022878474 0.39556685022878474 0.39556685022878474
0.377675469693332 0.377675469693332 0.377675469693332 0.377675469693332 0.377675469693332
0.2863737904812628 0.2863737904812628 0.2863737904812628 0.2863737904812628 0.2863737904812628
0.3152110787868923 0.3152110787868923 0.3152110787868923 0.3152110787868923 0.3152110787868923
0.3660974919242696 0.3660974919242696 0.3660974919242696 0.3660974919242696 0.3660974919242696
0.6435071968887028 0.6435071968887028 0.6435071968887028 0.6435071968887028 0.6435071968887028
0.5194006753486005 0.5194006753486005 0.5194006753486005 0.5194006753486005 0.5194006753486005
0.35341967067238483 0.35341967067238483 0.35341967067238483 0.35341967067238483 0.35341967067238483
0.32945580017811277 0.32945580017811277 0.32945580017811277 0.32945580017811277 0.32945580017811277
0.3444195350938466 0.3444195350938466 0.3444195350938466 0.3444195350938466 0.3444195350938466
0.2578005098877485 0.2578005098877485 0.2578005098877485 0.2578005098877485 0.2578005098877485
0.3735008458771629 0.3735008458771629 0.3735008458771629 0.3735008458771629 0.3735008458771629
0.49857058877545707 0.49857058877545707 0.49857058877545707 0.49857058877545707 0.49857058877545707
0.38832975781932966 0.38832975781932966 0.38832975781932966 0.38832975781932966 0.38832975781932966
0.31175586068318895 0.31175586068318895 0.31175586068318895 0.31175586068318895 0.31175586068318895
0.29852038616070836 0.29852038616070836 0.29852038616070836 0.29852038616070836 0.29852038616070836
0.33284443387395507 0.33284443387395507 0.33284443387395507 0.33284443387395507 0.33284443387395507
0.3677920371766991 0.3677920371766991 0.3677920371766991 0.3677920371766991 0.3677920371766991
0.39782508389842025 0.39782508389842025 0.39782508389842025 0.39782508389842025 0.39782508389842025
0.31088717125952736 0.31088717125952736 0.31088717125952736 0.31088717125952736 0.31088717125952736
0.43656949811316015 0.43656949811316015 0.43656949811316015 0.43656949811316015 0.43656949811316015
0.5187719680611768 0.5187719680611768 0.5187719680611768 0.5187719680611768 0.5187719680611768
0.353481054127471 0.353481054127471 0.353481054127471 0.353481054127471 0.353481054127471
0.2977645861422457 0.2977645861422457 0.2977645861422457 0.2977645861422457 0.2977645861422457
0.31932503486485886 0.31932503486485886 0.31932503486485886 0.31932503486485886 0.31932503486485886
0.42395692387195677 0.42395692387195677 0.42395692387195677 0.42395692387195677 0.42395692387195677
0.38006382131702277 0.38006382131702277 0.38006382131702277 0.38006382131702277 0.38006382131702277
0.37274540240373355 0.37274540240373355 0.37274540240373355 0.37274540240373355 0.37274540240373355
0.31079524133791797 0.31079524133791797 0.31079524133791797 0.31079524133791797 0.31079524133791797
0.36898121595927336 0.36898121595927336 0.36898121595927336 0.36898121595927336 0.36898121595927336
0.31927623053033627 0.31927623053033627 0.31927623053033627 0.31927623053033627 0.31927623053033627
0.39524351216889286 0.39524351216889286 0.39524351216889286 0.39524351216889286 0.39524351216889286
0.2976047076817873 0.2976047076817873 0.2976047076817873 0.2976047076817873 0.2976047076817873
0.40620016118105157 0.40620016118105157 0.40620016118105157 0.40620016118105157 0.40620016118105157
0.3061585799696583 0.3061585799696583 0.3061585799696583 0.3061585799696583 0.3061585799696583
0.4854423583167934 0.4854423583167934 0.4854423583167934 0.4854423583167934 0.4854423583167934
0.5156560218160309 0.5156560218160309 0.5156560218160309 0.5156560218160309 0.5156560218160309
0.32020275899980005 0.32020275899980005 0.32020275899980005 0.32020275899980005 0.32020275899980005
0.3581799989606779 0.3581799989606779 0.3581799989606779 0.3581799989606779 0.3581799989606779
0.4416501725050327 0.4416501725050327 0.4416501725050327 0.4416501725050327 0.4416501725050327
0.2554266214062774 0.2554266214062774 0.2554266214062774 0.2554266214062774 0.2554266214062774
0.3680376807171243 0.3680376807171243 0.3680376807171243 0.3680376807171243 0.3680376807171243
0.48032235661102546 0.48032235661102546 0.48032235661102546 0.48032235661102546 0.48032235661102546
0.40853663838120624 0.40853663838120624 0.40853663838120624 0.40853663838120624 0.40853663838120624
0.5471299505627614 0.5471299505627614 0.5471299505627614 0.5471299505627614 0.5471299505627614
0.3657341712960842 0.3657341712960842 0.3657341712960842 0.3657341712960842 0.3657341712960842
0.40068446926019036 0.40068446926019036 0.40068446926019036 0.40068446926019036 0.40068446926019036
0.38041751514192823 0.38041751514192823 0.38041751514192823 0.38041751514192823 0.38041751514192823
0.6138490649053334 0.6138490649053334 0.6138490649053334 0.6138490649053334 0.6138490649053334
0.6138490649053334 0.6138490649053334 0.6138490649053334 0.6138490649053334 0.6138490649053334
0.38041751514192823 0.38041751514192823 0.38041751514192823 0.38041751514192823 0.38041751514192823
0.40068446926019036 0.40068446926019036 0.40068446926019036 0.40068446926019036 0.40068446926019036
0.3657341712960842 0.3657341712960842 0.3657341712960842 0.3657341712960842 0.3657341712960842
0.5471299505627614 0.5471299505627614 0.5471299505627614 0.5471299505627614 0.5471299505627614
0.40853663838120624 0.40853663838120624 0.40853663838120624 0.40853663838120624 0.40853663838120624
0.48032235661102546 0.48032235661102546 0.48032235661102546 0.48032235661102546 0.48032235661102546
0.3680376807171243 0.3680376807171243 0.3680376807171243 0.3680376807171243 0.3680376807171243
0.2554266214062774 0.2554266214062774 0.2554266214062774 0.2554266214062774 0.2554266214062774
0.4416501725050327 0.4416501725050327 0.4416501725050327 0.4416501725050327 0.4416501725050327
0.3581799989606779 0.3581799989606779 0.3581799989606779 0.3581799989606779 0.3581799989606779